                         Program Version 4.0.1.2 - RELEASE -
|  1> ! Opt TightSCF B3LYP/G
|  2> ! PrintBasis 6-31G(d,p)
|  3> %geom
|  4>      	Calc_Hess true
|  5>         Recalc_Hess 10
|  6>  end #geom
|  7> %output
|  8>      print[p_mos] 1
|  9>  end #output
| 10> * xyzfile 0  1 methane.xyz
| 11>
| 12>
| 13>                          ****END OF INPUT****
 Total Charge           Charge          ....    0
 Multiplicity           Mult            ....    1
 Number of Electrons    NEL             ....   10
FINAL SINGLE POINT ENERGY       -40.522475941225

VIBRATIONAL FREQUENCIES
-----------------------

   0:         0.00 cm**-1
   1:         0.00 cm**-1
   2:         0.00 cm**-1
   3:         0.00 cm**-1
   4:         0.00 cm**-1
   5:         0.00 cm**-1
   6:      1386.45 cm**-1
   7:      1387.18 cm**-1
   8:      1388.47 cm**-1
   9:      1587.17 cm**-1
  10:      1587.18 cm**-1
  11:      2903.91 cm**-1
  12:      3006.07 cm**-1
  13:      3006.13 cm**-1
  14:      3006.26 cm**-1

IR SPECTRUM
-----------

 Mode    freq (cm**-1)   T**2         TX         TY         TZ
-------------------------------------------------------------------
   6:      1386.45   12.165587  (  0.805569   0.181327  -3.388771)
   7:      1387.18   11.976804  ( -0.038567   3.455978   0.177567)
   8:      1388.47   12.015859  ( -3.362090   0.006953  -0.843896)
   9:      1587.17    0.000155  ( -0.003998   0.005280  -0.010556)
  10:      1587.18    0.000144  ( -0.000185   0.005157   0.010836)
  11:      2903.91    0.001018  (  0.024562  -0.001153  -0.020341)
  12:      3006.07   28.012091  ( -3.148535  -2.416411  -3.501397)
  13:      3006.13   28.189227  (  1.887664  -4.718453   1.536931)
  14:      3006.26   27.761862  (  3.796844   0.337379  -3.637583)

--------------------------
THERMOCHEMISTRY AT 298.15K
--------------------------

Temperature         ... 298.15 K
Pressure            ... 1.00 atm
Total Mass          ... 16.04 AMU

Throughout the following assumptions are being made:
  (1) The electronic state is orbitally nondegenerate
  (2) There are no thermally accessible electronically excited states
  (3) Hindered rotations indicated by low frequency modes are not
      treated as such but are treated as vibrations and this may
      cause some error
  (4) All equations used are the standard statistical mechanics
      equations for an ideal gas
  (5) All vibrations are strictly harmonic

freq.    1386.45  E(vib)   ...       0.00
freq.    1387.18  E(vib)   ...       0.00
freq.    1388.47  E(vib)   ...       0.00
freq.    1587.17  E(vib)   ...       0.00
freq.    1587.18  E(vib)   ...       0.00
freq.    2903.91  E(vib)   ...       0.00
freq.    3006.07  E(vib)   ...       0.00
freq.    3006.13  E(vib)   ...       0.00
freq.    3006.26  E(vib)   ...       0.00

------------
INNER ENERGY
------------

The inner energy is: U= E(el) + E(ZPE) + E(vib) + E(rot) + E(trans)
    E(el)   - is the total energy from the electronic structure calculation
              = E(kin-el) + E(nuc-el) + E(el-el) + E(nuc-nuc)
    E(ZPE)  - the the zero temperature vibrational energy from the frequency calculation
    E(vib)  - the the finite temperature correction to E(ZPE) due to population
              of excited vibrational states
    E(rot)  - is the rotational thermal energy
    E(trans)- is the translational thermal energy

Summary of contributions to the inner energy U:
Electronic energy                ...    -40.52247594 Eh
Zero point energy                ...      0.04387485 Eh      27.53 kcal/mol
Thermal vibrational correction   ...      0.00003035 Eh       0.02 kcal/mol
Thermal rotational correction    ...      0.00141627 Eh       0.89 kcal/mol
Thermal translational correction ...      0.00141627 Eh       0.89 kcal/mol
-----------------------------------------------------------------------
Total thermal energy                    -40.47573819 Eh

Summary of corrections to the electronic energy:
(perhaps to be used in another calculation)
Total thermal correction                  0.00286289 Eh       1.80 kcal/mol
Non-thermal (ZPE) correction              0.04387485 Eh      27.53 kcal/mol
-----------------------------------------------------------------------
Total correction                          0.04673775 Eh      29.33 kcal/mol

--------
ENTHALPY
--------

The enthalpy is H = U + kB*T
                kB is Boltzmann's constant
Total free energy                 ...    -40.47573819 Eh
Thermal Enthalpy correction       ...      0.00094421 Eh       0.59 kcal/mol
-----------------------------------------------------------------------
Total Enthalpy                    ...    -40.47479399 Eh

Vibrational entropy computed according to the QRRHO of S. Grimme
Chem.Eur.J. 2012 18 9955

-------
ENTROPY
-------

The entropy contributions are T*S = T*(S(el)+S(vib)+S(rot)+S(trans)
     S(el)   - electronic entropy
     S(vib)  - vibrational entropy
     S(rot)  - rotational entropy
     S(trans)- translational entropy
The entropies will be listed as mutliplied by the temperature to get
units of energy

Electronic entropy                ...      0.00000000 Eh      0.00 kcal/mol
Vibrational entropy               ...      0.00003476 Eh      0.02 kcal/mol
Rotational entropy                ...      0.00616732 Eh      3.87 kcal/mol
Translational entropy             ...      0.01627961 Eh     10.22 kcal/mol
-----------------------------------------------------------------------
Final entropy term                ...      0.02248169 Eh     14.11 kcal/mol

CAUTION: The rotational entropy is not quite correctly treated here
         because it includes a symmetry number that is not yet correctly
         implemented in ORCA!
For a nonlinear molecule the correct rotational entropy is:
    S(rot) = R*(ln(qrot/sn)+1.5)
    R    = 8.31441 J/mol/K = 1.987191683e-3 kcal/mol/K
    qrot =  459.6818563
    sn is the rotational symmetry number. We have assumed 3 here
       if it is different for your molecule then you should correct
       the printed rotational entropy by manually evaluating the equation
       as given above

For convenience we print out the resulting values for sn=1 - 12:
 sn= 1  qrot/sn=     459.6819 T*S(rot)=     4.52 kcal/mol T*S(tot)=    14.76 kcal/mol
 sn= 2  qrot/sn=     229.8409 T*S(rot)=     4.11 kcal/mol T*S(tot)=    14.35 kcal/mol
 sn= 3  qrot/sn=     153.2273 T*S(rot)=     3.87 kcal/mol T*S(tot)=    14.11 kcal/mol
 sn= 4  qrot/sn=     114.9205 T*S(rot)=     3.70 kcal/mol T*S(tot)=    13.94 kcal/mol
 sn= 5  qrot/sn=      91.9364 T*S(rot)=     3.57 kcal/mol T*S(tot)=    13.80 kcal/mol
 sn= 6  qrot/sn=      76.6136 T*S(rot)=     3.46 kcal/mol T*S(tot)=    13.70 kcal/mol
 sn= 7  qrot/sn=      65.6688 T*S(rot)=     3.37 kcal/mol T*S(tot)=    13.61 kcal/mol
 sn= 8  qrot/sn=      57.4602 T*S(rot)=     3.29 kcal/mol T*S(tot)=    13.53 kcal/mol
 sn= 9  qrot/sn=      51.0758 T*S(rot)=     3.22 kcal/mol T*S(tot)=    13.46 kcal/mol
 sn=10  qrot/sn=      45.9682 T*S(rot)=     3.16 kcal/mol T*S(tot)=    13.39 kcal/mol
 sn=11  qrot/sn=      41.7893 T*S(rot)=     3.10 kcal/mol T*S(tot)=    13.34 kcal/mol
 sn=12  qrot/sn=      38.3068 T*S(rot)=     3.05 kcal/mol T*S(tot)=    13.29 kcal/mol

-------------------
GIBBS FREE ENTHALPY
-------------------

The Gibbs free enthalpy is G = H - T*S

Total enthalpy                    ...    -40.47479399 Eh
Total entropy correction          ...     -0.02248169 Eh    -14.11 kcal/mol
-----------------------------------------------------------------------
Final Gibbs free enthalpy         ...    -40.49727567 Eh

For completeness - the Gibbs free enthalpy minus the electronic energy
G-E(el)                           ...      0.02520027 Eh     15.81 kcal/mol

FINAL SINGLE POINT ENERGY       -40.523212350698
FINAL SINGLE POINT ENERGY       -40.523213899169
                    ***********************HURRAY********************

CARTESIAN COORDINATES (ANGSTROEM)
---------------------------------
  C     -1.961565    1.571986    0.000070
  H     -0.869246    1.572042    0.000055
  H     -2.326154    2.473998   -0.496086
  H     -2.326061    1.550838    1.028849
  H     -2.326184    0.691266   -0.532898

 Multiplicity           Mult            ....    1
 Number of Electrons    NEL             ....   10
 Basis Dimension        Dim             ....   34

ORBITAL ENERGIES
----------------

  NO   OCC          E(Eh)            E(eV)
   0   2.0000     -10.162787      -276.5435
   1   2.0000      -0.690293       -18.7838
   2   2.0000      -0.388496       -10.5715
   3   2.0000      -0.388359       -10.5678
   4   2.0000      -0.388203       -10.5636
   5   0.0000       0.118380         3.2213
   6   0.0000       0.175870         4.7857
   7   0.0000       0.176459         4.8017
   8   0.0000       0.178157         4.8479
   9   0.0000       0.527220        14.3464

------------------
MOLECULAR ORBITALS
------------------
                      0         1         2         3         4         5
                 -10.16279  -0.69029  -0.38850  -0.38836  -0.38820   0.11838
                   2.00000   2.00000   2.00000   2.00000   2.00000   0.00000
                  --------  --------  --------  --------  --------  --------
  0C   1s         0.995004  0.197113  0.000005 -0.000013 -0.000005  0.159012
  0C   2s         0.037455 -0.374871 -0.000967  0.000700  0.000024 -0.177556
  0C   1pz        0.000001 -0.000003  0.048026  0.439142  0.032365  0.001769
  0C   1px        0.000004  0.000424  0.440354 -0.048666  0.006269  0.004566
  0C   1py       -0.000000 -0.000035  0.009796  0.031496 -0.441279 -0.000603
  0C   3s        -0.025706 -0.329591  0.001579 -0.001555 -0.000078 -2.579997
  0C   2pz       -0.000003  0.000223  0.021926  0.198717  0.014681  0.011807
  0C   2px        0.000003 -0.001146  0.198390 -0.021370  0.002881  0.032691
  0C   2py       -0.000000  0.000065  0.004345  0.014205 -0.199339 -0.003885
  0C   1dz2      -0.000002  0.000060 -0.009576  0.017151  0.002013  0.000070
  0C   1dxz      -0.000001 -0.000035 -0.001385 -0.013164 -0.000967  0.000003
  0C   1dyz       0.000000 -0.000002 -0.000538 -0.002458  0.018512  0.000012
  0C   1dx2y2     0.000002 -0.000085  0.020557  0.007091  0.001544  0.000066
  0C   1dxy       0.000000 -0.000002 -0.000287 -0.000947  0.013200 -0.000001
  1H   1s        -0.001175 -0.136990  0.292913 -0.032255  0.004175  0.016341
  1H   2s         0.004567 -0.047622  0.259914 -0.028993  0.003724  0.944907
  1H   1pz        0.000000 -0.000029  0.000934  0.008431  0.000623  0.000004
  1H   1px        0.001455  0.011822 -0.007209  0.000806 -0.000102  0.003254
  1H   1py       -0.000000 -0.000002  0.000190  0.000605 -0.008488 -0.000002
  2H   1s        -0.001173 -0.137070 -0.107059 -0.104511 -0.253755  0.020165
  2H   2s         0.004569 -0.048506 -0.094710 -0.092374 -0.226246  1.009621
  2H   1pz       -0.000660 -0.005396 -0.001682  0.005885 -0.005523 -0.001212
  2H   1px       -0.000485 -0.003923  0.006516 -0.002795 -0.004409 -0.000938
  2H   1py        0.001199  0.009809  0.004902  0.005159  0.002751  0.002241
  3H   1s        -0.001176 -0.137308 -0.068011  0.285899  0.024594  0.018375
  3H   2s         0.004575 -0.048327 -0.060267  0.253810  0.021926  0.985545
  3H   1pz        0.001368  0.011228  0.004350 -0.005968 -0.000619  0.002767
  3H   1px       -0.000484 -0.003906  0.007198  0.004100  0.000555 -0.000974
  3H   1py       -0.000028 -0.000237  0.000116  0.000905 -0.008481 -0.000057
  4H   1s        -0.001174 -0.137082 -0.118784 -0.148566  0.224972  0.019722
  4H   2s         0.004569 -0.048405 -0.105191 -0.131527  0.200705  1.002236
  4H   1pz       -0.000709 -0.005797 -0.002181  0.004558  0.006479 -0.001337
  4H   1px       -0.000485 -0.003922  0.006305 -0.003580  0.004138 -0.000959
  4H   1py       -0.001171 -0.009578 -0.004922 -0.005744  0.001252 -0.002239
                      6         7         8         9        10        11
                   0.17587   0.17646   0.17816   0.52722   0.52896   0.53157
                   0.00000   0.00000   0.00000   0.00000   0.00000   0.00000
                  --------  --------  --------  --------  --------  --------
  0C   1s        -0.001781  0.000300 -0.002869 -0.000093 -0.000133 -0.000664
  0C   2s         0.002705 -0.000405  0.004530 -0.000098  0.002862 -0.006891
  0C   1pz        0.369481  0.043173 -0.073149 -0.082322 -0.742309  0.013129
  0C   1px        0.072539 -0.006052  0.377564 -0.018147 -0.013998 -0.743017
  0C   1py       -0.041297  0.379269  0.014410  0.740848 -0.082234 -0.016162
  0C   3s         0.027758 -0.004463  0.040952  0.001484 -0.003360  0.022055
  0C   2pz        1.315958  0.153026 -0.252255  0.159513  1.440434 -0.027953
  0C   2px        0.258955 -0.021410  1.312288  0.034763  0.024172  1.450966
  0C   2py       -0.145860  1.334571  0.049922 -1.442552  0.160336  0.031904
  0C   1dz2      -0.011795 -0.000894  0.013005 -0.008197 -0.052096  0.039955
  0C   1dxz       0.011212  0.001318 -0.002223  0.004734  0.043196 -0.001156
  0C   1dyz      -0.000769  0.016307  0.000433 -0.060460  0.010630  0.001318
  0C   1dx2y2    -0.011164 -0.000147 -0.016092 -0.006730 -0.031083 -0.066117
  0C   1dxy      -0.001233  0.011479  0.000445 -0.043310  0.004860  0.001020
  1H   1s        -0.024752  0.002132 -0.124768 -0.011898 -0.007202 -0.498097
  1H   2s        -0.367897  0.031318 -1.836866 -0.006277 -0.003382 -0.253799
  1H   1pz        0.011132  0.001305 -0.002233  0.002181  0.020024 -0.000512
  1H   1px       -0.000767  0.000074 -0.004363  0.001043  0.000833  0.042742
  1H   1py       -0.001247  0.011491  0.000442 -0.019940  0.002252  0.000474
  2H   1s         0.074908 -0.096775  0.025699  0.434819  0.180249  0.148707
  2H   2s         1.101578 -1.439009  0.374174  0.218365  0.090030  0.072187
  2H   1pz        0.007126  0.006581 -0.003675  0.011468  0.023753  0.002686
  2H   1px       -0.000712  0.003716  0.010501  0.007344  0.003200  0.022984
  2H   1py        0.005890  0.001752  0.003045 -0.036550 -0.005138 -0.005335
  3H   1s        -0.108586 -0.011654  0.062469 -0.057038 -0.458723  0.172987
  3H   2s        -1.609513 -0.171745  0.923488 -0.028760 -0.228712  0.083179
  3H   1pz       -0.000884  0.000009  0.005211  0.004674  0.039973 -0.007587
  3H   1px        0.006389  0.000271  0.008892 -0.000447 -0.007010  0.023014
  3H   1py       -0.000995  0.011542  0.000288 -0.019866  0.001839  0.000603
  4H   1s         0.056906  0.106733  0.032576 -0.366802  0.286121  0.166353
  4H   2s         0.833152  1.586230  0.475592 -0.184765  0.143220  0.081035
  4H   1pz        0.007884 -0.004966 -0.004207 -0.006194  0.026471  0.003279
  4H   1px        0.000006 -0.004485  0.010210 -0.005294  0.004847  0.023237
  4H   1py       -0.006473  0.001023 -0.002806 -0.033404  0.013333  0.006711
                     12        13        14        15        16        17
                   0.87350   0.87386   0.87577   0.92310   1.10955   1.36310
                   0.00000   0.00000   0.00000   0.00000   0.00000   0.00000
                  --------  --------  --------  --------  --------  --------
  0C   1s        -0.001255  0.000037 -0.001186  0.088294 -0.079741  0.000013
  0C   2s         0.005536 -0.000336  0.005950 -0.855739 -2.162675  0.000365
  0C   1pz       -0.714512  0.178683  0.213082 -0.006215  0.000465  0.000017
  0C   1px       -0.212735  0.021777 -0.737662 -0.010702  0.004321 -0.000064
  0C   1py        0.177562  0.745753 -0.029428  0.001467 -0.000467 -0.000088
  0C   3s        -0.003743  0.000496 -0.005052  1.477232  5.300352 -0.000842
  0C   2pz        1.220318 -0.305350 -0.365296  0.010876  0.000480 -0.000013
  0C   2px        0.363861 -0.037309  1.265911  0.021217 -0.009405  0.000033
  0C   2py       -0.303510 -1.275388  0.050487 -0.002756  0.000894  0.000108
  0C   1dz2       0.130842 -0.026637 -0.166871 -0.000067 -0.000307  0.045088
  0C   1dxz      -0.133198  0.033282  0.039377 -0.001286  0.000862  0.040006
  0C   1dyz       0.034987  0.198456 -0.004247  0.000245  0.000027  0.382481
  0C   1dx2y2     0.154970 -0.023496  0.176649  0.003208  0.000930  0.026007
  0C   1dxy       0.033115  0.138901 -0.005424  0.000247 -0.000042 -0.544240
  1H   1s         0.228913 -0.023932  0.807352  0.618092 -0.338199  0.000136
  1H   2s        -0.497662  0.051154 -1.734327 -0.649930 -0.989308  0.000104
  1H   1pz       -0.047562  0.011874  0.013971 -0.000399  0.000541  0.018022
  1H   1px        0.028929 -0.003020  0.101965  0.078250  0.024843  0.000012
  1H   1py        0.011795  0.049453 -0.001923  0.000066 -0.000001 -0.244907
  2H   1s        -0.608463 -0.583370 -0.144574  0.600594 -0.336443 -0.000189
  2H   2s         1.280739  1.241279  0.298047 -0.605378 -0.997544  0.000183
  2H   1pz        0.003645  0.061372  0.026074 -0.034722 -0.011590  0.125727
  2H   1px        0.023543  0.037776 -0.039716 -0.025538 -0.009296 -0.210460
  2H   1py       -0.081569 -0.040405 -0.023811  0.062556  0.021119 -0.015842
  3H   1s         0.663964 -0.162130 -0.499931  0.610469 -0.338889  0.000032
  3H   2s        -1.421893  0.344871  1.056982 -0.628200 -0.995213  0.000176
  3H   1pz        0.069842 -0.016694 -0.073559  0.072789  0.023963  0.012722
  3H   1px       -0.055868  0.011585 -0.017646 -0.026263 -0.008834  0.021699
  3H   1py        0.009377  0.050056 -0.000128 -0.001451 -0.000428  0.244771
  4H   1s        -0.314116  0.770448 -0.189645  0.602715 -0.336822  0.000303
  4H   2s         0.655074 -1.638263  0.394313 -0.610627 -0.996361  0.000103
  4H   1pz       -0.019345 -0.058250  0.031058 -0.037452 -0.012426 -0.156519
  4H   1px        0.005215 -0.046527 -0.036915 -0.025661 -0.009243  0.188754
  4H   1py        0.058685 -0.066425  0.026201 -0.061262 -0.020519  0.016635
                     18        19        20        21        22        23
                   1.36332   2.04802   2.04809   2.04833   2.05092   2.05138
                   0.00000   0.00000   0.00000   0.00000   0.00000   0.00000
                  --------  --------  --------  --------  --------  --------
  0C   1s         0.000102  0.000011  0.000024  0.000004  0.000022 -0.000176
  0C   2s         0.002303  0.000110  0.000230  0.000036  0.000513 -0.003084
  0C   1pz        0.000256  0.002928  0.005965  0.001318 -0.005652  0.036856
  0C   1px       -0.000389  0.000120 -0.001835  0.000376 -0.009945  0.104160
  0C   1py        0.000001  0.013123 -0.007530 -0.001711  0.107931  0.011110
  0C   3s        -0.005556 -0.000352 -0.000729 -0.000109 -0.001256  0.008025
  0C   2pz       -0.000233 -0.014776 -0.030443 -0.006874  0.030053 -0.194107
  0C   2px        0.000157 -0.000246  0.010465 -0.001896  0.052063 -0.543077
  0C   2py        0.000002 -0.068887  0.039437  0.009258 -0.568352 -0.058206
  0C   1dz2       0.331853 -0.008643 -0.033329 -0.004948  0.023966  0.159801
  0C   1dxz       0.543881  0.009921  0.020446  0.004633 -0.020640  0.132647
  0C   1dyz      -0.052084  0.067038 -0.036165 -0.008844  0.545602  0.067463
  0C   1dx2y2     0.191203 -0.005032 -0.004841 -0.005542  0.084672 -0.644370
  0C   1dxy       0.039972  0.046877 -0.026784 -0.006658  0.388352  0.039626
  1H   1s         0.000848  0.000044 -0.011264  0.002067 -0.055135  0.573766
  1H   2s         0.000695  0.000216  0.001505 -0.000228  0.006383 -0.064410
  1H   1pz        0.245054  0.314983  0.543778  0.042375 -0.011775  0.079918
  1H   1px        0.000009 -0.000003 -0.006546  0.001181 -0.032297  0.336004
  1H   1py        0.017988  0.521637 -0.317987  0.198931  0.167131  0.011396
  2H   1s         0.000585  0.053287 -0.045199 -0.012347  0.532496 -0.235295
  2H   2s         0.000756 -0.005774  0.004836  0.001510 -0.059646  0.024859
  2H   1pz       -0.179474  0.057557 -0.217003 -0.489135 -0.088735  0.102426
  2H   1px       -0.096381 -0.269512  0.488361 -0.148248  0.008151  0.254297
  2H   1py       -0.137688 -0.039847  0.046211 -0.337597  0.331238 -0.006666
  3H   1s         0.000015  0.013154  0.034631  0.006307 -0.023595  0.001795
  3H   2s         0.001582 -0.001239 -0.003328 -0.000606  0.003048 -0.002795
  3H   1pz        0.081225 -0.098396 -0.157362  0.002056 -0.016684  0.084450
  3H   1px        0.230495 -0.282217 -0.512925 -0.032805 -0.023230  0.232770
  3H   1py       -0.024816 -0.315808  0.147774  0.475659  0.303083  0.030474
  4H   1s         0.000554 -0.066426  0.021989  0.003995 -0.453336 -0.342986
  4H   2s         0.000746  0.007096 -0.002415 -0.000585  0.051057  0.036752
  4H   1pz       -0.147003 -0.246082 -0.111241  0.457965  0.057662  0.115741
  4H   1px       -0.134022  0.551953  0.010383  0.183506 -0.054655  0.238936
  4H   1py        0.144447 -0.031770  0.047217 -0.355913  0.316487  0.078984
                     24        25        26        27        28        29
                   2.05212   2.62901   2.62952   2.63077   2.91089   2.91097
                   0.00000   0.00000   0.00000   0.00000   0.00000   0.00000
                  --------  --------  --------  --------  --------  --------
  0C   1s        -0.000160 -0.000050  0.000006 -0.000015 -0.000048 -0.000028
  0C   2s        -0.001427  0.000842 -0.000299  0.001500  0.000549  0.000346
  0C   1pz       -0.103278 -0.161629  0.026119  0.003111  0.001043  0.000623
  0C   1px        0.038120  0.001562 -0.006370  0.163252 -0.000358 -0.000174
  0C   1py       -0.002224  0.026179  0.161243  0.006034  0.000181 -0.000210
  0C   3s         0.004570 -0.000994  0.000331 -0.001763  0.000186  0.000071
  0C   2pz        0.542228 -0.651338  0.105369  0.011547  0.000940  0.000412
  0C   2px       -0.197904  0.008172 -0.025997  0.661905 -0.000101  0.000022
  0C   2py        0.011478  0.105669  0.651657  0.024444  0.000646 -0.001013
  0C   1dz2       0.566642  0.337448 -0.042460  0.232343  0.410426  0.202788
  0C   1dxz      -0.369551 -0.270365  0.043678  0.004860  0.646211  0.370257
  0C   1dyz      -0.043232  0.038299  0.385027  0.014749  0.233994 -0.474090
  0C   1dx2y2     0.059558  0.188214 -0.002931 -0.414240  0.236348  0.116628
  0C   1dxy      -0.007756  0.043960  0.271851  0.010065 -0.370229  0.645914
  1H   1s         0.208168  0.000767 -0.002258  0.055858  0.000218  0.000095
  1H   2s        -0.023153 -0.006510  0.020996 -0.535102  0.000120  0.000039
  1H   1pz       -0.194613  0.641519 -0.103670 -0.011531 -0.439470 -0.251720
  1H   1px        0.122304  0.002187 -0.007059  0.179692 -0.000322 -0.000123
  1H   1py       -0.006374 -0.104142 -0.642539 -0.023925  0.251085 -0.438063
  2H   1s         0.181825  0.032131  0.042194 -0.016765  0.000071  0.000038
  2H   2s        -0.021746 -0.307567 -0.403453  0.166244  0.000023  0.000581
  2H   1pz       -0.261974  0.424208 -0.387535  0.105459  0.161079  0.421862
  2H   1px        0.090827 -0.167252 -0.184273 -0.563872  0.407422 -0.248199
  2H   1py        0.021459  0.291469 -0.124133 -0.236827  0.253059  0.131660
  3H   1s        -0.612605 -0.052543  0.007996 -0.017299 -0.000647 -0.000382
  3H   2s         0.067463  0.500636 -0.077104  0.170042 -0.001256 -0.000659
  3H   1pz       -0.349371 -0.090879  0.009093 -0.259323 -0.151571 -0.070757
  3H   1px        0.086044  0.251266 -0.014314 -0.562306 -0.419925 -0.229358
  3H   1py        0.001874 -0.088953 -0.642613 -0.018983 -0.240551  0.447624
  4H   1s         0.220983  0.019325 -0.048123 -0.020149  0.000100  0.000104
  4H   2s        -0.026068 -0.185822  0.459488  0.198860  0.000652 -0.000203
  4H   1pz       -0.259684  0.500207  0.243740  0.138741  0.431377 -0.098054
  4H   1px        0.087262 -0.104012  0.264422 -0.547051  0.011670  0.476788
  4H   1py       -0.039353 -0.337819 -0.065811  0.224635 -0.265534 -0.137732
                     30        31        32        33
                   3.11687   3.41982   3.42002   3.42105
                   0.00000   0.00000   0.00000   0.00000
                  --------  --------  --------  --------
  0C   1s        -0.121984  0.000051 -0.000079  0.000189
  0C   2s         0.839012 -0.000480  0.000477 -0.003039
  0C   1pz       -0.001201 -0.147836  0.434991 -0.794215
  0C   1px       -0.000838 -0.237295  0.756132  0.459075
  0C   1py        0.000218  0.872748  0.279588 -0.009328
  0C   3s         1.128130 -0.000296  0.000245 -0.002228
  0C   2pz       -0.000574 -0.086305  0.254185 -0.464909
  0C   2px       -0.000137 -0.139556  0.444900  0.270440
  0C   2py        0.000124  0.511599  0.163988 -0.005492
  0C   1dz2      -0.002711 -0.030523 -0.107935 -1.015769
  0C   1dxz       0.000886  0.110024 -0.324031  0.592233
  0C   1dyz       0.000044 -0.905984 -0.321581  0.061223
  0C   1dx2y2     0.000053 -0.370838  1.063178  0.096539
  0C   1dxy      -0.000092 -0.650100 -0.208261  0.007072
  1H   1s        -0.269522  0.212519 -0.676992 -0.410162
  1H   2s        -0.321708  0.143219 -0.456225 -0.276473
  1H   1pz       -0.000078 -0.002667  0.007982 -0.014749
  1H   1px        0.662133 -0.315856  1.005830  0.608699
  1H   1py        0.000009  0.015614  0.005100 -0.000174
  2H   1s        -0.270214 -0.776222  0.195919 -0.178268
  2H   2s        -0.321764 -0.521583  0.131444 -0.119216
  2H   1pz       -0.301770 -0.519344  0.137772 -0.131670
  2H   1px       -0.220903 -0.383831  0.109054 -0.078832
  2H   1py        0.547421  0.954465 -0.231879  0.215638
  3H   1s        -0.268517  0.069196 -0.136528  0.808420
  3H   2s        -0.320759  0.046224 -0.090932  0.542512
  3H   1pz        0.622097 -0.098214  0.196260 -1.128744
  3H   1px       -0.219669  0.029644 -0.053199  0.402490
  3H   1py       -0.012848  0.016750  0.000869  0.022799
  4H   1s        -0.270039  0.494817  0.617676 -0.215853
  4H   2s        -0.321646  0.332686  0.414964 -0.144442
  4H   1pz       -0.323918  0.351446  0.449078 -0.167395
  4H   1px       -0.220823  0.237918  0.315364 -0.097102
  4H   1py       -0.534266  0.600061  0.734320 -0.255264

MULLIKEN ATOMIC CHARGES
-----------------------
   0 C :   -0.458583
   1 H :    0.115806
   2 H :    0.114229
   3 H :    0.114150
   4 H :    0.114397
Sum of atomic charges:   -0.0000000

LOEWDIN ATOMIC CHARGES
----------------------
   0 C :   -0.298176
   1 H :    0.074684
   2 H :    0.074477
   3 H :    0.074507
   4 H :    0.074509

  Mayer bond orders larger than 0.1
B(  0-C ,  1-H ) :   0.9786 B(  0-C ,  2-H ) :   0.9794 B(  0-C ,  3-H ) :   0.9792
B(  0-C ,  4-H ) :   0.9793

FINAL SINGLE POINT ENERGY       -40.523213890993

DIPOLE MOMENT
-------------
                                X             Y             Z
Electronic contribution:     -0.00085      -0.00014       0.00130
Nuclear contribution   :     -0.00097       0.00014      -0.00025
                        -----------------------------------------
Total Dipole Moment    :     -0.00182      -0.00000       0.00105
                        -----------------------------------------
Magnitude (a.u.)       :      0.00210
Magnitude (Debye)      :      0.00534

                             ****ORCA TERMINATED NORMALLY****
TOTAL RUN TIME: 0 days 0 hours 0 minutes 15 seconds 101 msec
