                         Program Version 4.0.1.2 - RELEASE -
|  1> ! TightSCF B3LYP/G NUMFREQ
|  2> ! PrintBasis 6-31G(d,p)
|  3>
|  4> %ELPROP
|  5>    POLAR 1
|  6> END
|  7>
|  8> %output
|  9>      print[p_mos] 1
| 10>  end #output
| 11> * xyzfile 0  1 geo.xyz
| 12>
| 13>
| 14>                          ****END OF INPUT****

CARTESIAN COORDINATES (ANGSTROEM)
---------------------------------
  C     -1.961565    1.571986    0.000070
  H     -0.869246    1.572042    0.000055
  H     -2.326154    2.473998   -0.496086
  H     -2.326061    1.550838    1.028849
  H     -2.326184    0.691266   -0.532898

 Total Charge           Charge          ....    0
 Multiplicity           Mult            ....    1
 Number of Electrons    NEL             ....   10
 Basis Dimension        Dim             ....   34

ORBITAL ENERGIES
----------------

  NO   OCC          E(Eh)            E(eV)
   0   2.0000     -10.162787      -276.5435
   1   2.0000      -0.690293       -18.7838
   2   2.0000      -0.388496       -10.5715
   3   2.0000      -0.388359       -10.5678
   4   2.0000      -0.388203       -10.5636
   5   0.0000       0.118380         3.2213
   6   0.0000       0.175870         4.7857
   7   0.0000       0.176459         4.8017
   8   0.0000       0.178157         4.8479
   9   0.0000       0.527220        14.3464

------------------
MOLECULAR ORBITALS
------------------
                      0         1         2         3         4         5
                 -10.16279  -0.69029  -0.38850  -0.38836  -0.38820   0.11838
                   2.00000   2.00000   2.00000   2.00000   2.00000   0.00000
                  --------  --------  --------  --------  --------  --------
  0C   1s        -0.995004 -0.197113 -0.000005  0.000013  0.000005  0.159012
  0C   2s        -0.037455  0.374872  0.000967 -0.000700 -0.000024 -0.177556
  0C   1pz       -0.000001  0.000003 -0.048012 -0.439143 -0.032367  0.001769
  0C   1px       -0.000004 -0.000424 -0.440356  0.048652 -0.006270  0.004566
  0C   1py        0.000000  0.000035 -0.009796 -0.031498  0.441279 -0.000603
  0C   3s         0.025706  0.329592 -0.001579  0.001555  0.000078 -2.579996
  0C   2pz        0.000003 -0.000223 -0.021920 -0.198717 -0.014682  0.011807
  0C   2px       -0.000003  0.001146 -0.198390  0.021364 -0.002881  0.032691
  0C   2py        0.000000 -0.000065 -0.004345 -0.014206  0.199338 -0.003884
  0C   1dz2       0.000002 -0.000060  0.009577 -0.017151 -0.002013  0.000070
  0C   1dxz       0.000001  0.000035  0.001385  0.013164  0.000967  0.000003
  0C   1dyz      -0.000000  0.000002  0.000538  0.002458 -0.018512  0.000012
  0C   1dx2y2    -0.000002  0.000085 -0.020557 -0.007091 -0.001544  0.000066
  0C   1dxy      -0.000000  0.000002  0.000287  0.000947 -0.013200 -0.000001
  1H   1s         0.001175  0.136990 -0.292914  0.032246 -0.004176  0.016341
  1H   2s        -0.004567  0.047622 -0.259915  0.028985 -0.003724  0.944908
  1H   1pz       -0.000000  0.000029 -0.000934 -0.008431 -0.000623  0.000004
  1H   1px       -0.001455 -0.011822  0.007209 -0.000806  0.000102  0.003254
  1H   1py        0.000000  0.000002 -0.000190 -0.000605  0.008488 -0.000002
  2H   1s         0.001173  0.137070  0.107055  0.104513  0.253756  0.020165
  2H   2s        -0.004569  0.048506  0.094706  0.092377  0.226247  1.009620
  2H   1pz        0.000660  0.005396  0.001682 -0.005885  0.005523 -0.001212
  2H   1px        0.000485  0.003923 -0.006516  0.002795  0.004409 -0.000938
  2H   1py       -0.001199 -0.009809 -0.004902 -0.005159 -0.002751  0.002241
  3H   1s         0.001176  0.137308  0.068020 -0.285897 -0.024595  0.018375
  3H   2s        -0.004575  0.048327  0.060275 -0.253809 -0.021927  0.985545
  3H   1pz       -0.001368 -0.011228 -0.004350  0.005968  0.000619  0.002767
  3H   1px        0.000484  0.003906 -0.007198 -0.004100 -0.000556 -0.000974
  3H   1py        0.000028  0.000237 -0.000116 -0.000905  0.008481 -0.000057
  4H   1s         0.001174  0.137082  0.118780  0.148571 -0.224971  0.019722
  4H   2s        -0.004569  0.048405  0.105187  0.131532 -0.200705  1.002235
  4H   1pz        0.000709  0.005797  0.002182 -0.004558 -0.006479 -0.001337
  4H   1px        0.000485  0.003922 -0.006306  0.003580 -0.004138 -0.000959
  4H   1py        0.001171  0.009579  0.004922  0.005744 -0.001252 -0.002239
                      6         7         8         9        10        11
                   0.17587   0.17646   0.17816   0.52722   0.52896   0.53157
                   0.00000   0.00000   0.00000   0.00000   0.00000   0.00000
                  --------  --------  --------  --------  --------  --------
  0C   1s         0.001781  0.000300 -0.002869 -0.000093 -0.000133  0.000664
  0C   2s        -0.002705 -0.000405  0.004530 -0.000098  0.002862  0.006891
  0C   1pz       -0.369481  0.043173 -0.073149 -0.082322 -0.742309 -0.013129
  0C   1px       -0.072539 -0.006052  0.377564 -0.018147 -0.013998  0.743017
  0C   1py        0.041297  0.379269  0.014410  0.740848 -0.082234  0.016162
  0C   3s        -0.027758 -0.004463  0.040951  0.001484 -0.003360 -0.022055
  0C   2pz       -1.315958  0.153025 -0.252256  0.159513  1.440435  0.027953
  0C   2px       -0.258956 -0.021410  1.312288  0.034763  0.024172 -1.450966
  0C   2py        0.145859  1.334571  0.049923 -1.442552  0.160336 -0.031904
  0C   1dz2       0.011795 -0.000894  0.013005 -0.008197 -0.052096 -0.039955
  0C   1dxz      -0.011212  0.001318 -0.002223  0.004734  0.043196  0.001156
  0C   1dyz       0.000769  0.016307  0.000433 -0.060460  0.010630 -0.001318
  0C   1dx2y2     0.011164 -0.000147 -0.016092 -0.006730 -0.031083  0.066117
  0C   1dxy       0.001233  0.011479  0.000445 -0.043310  0.004860 -0.001020
  1H   1s         0.024752  0.002132 -0.124768 -0.011898 -0.007202  0.498097
  1H   2s         0.367898  0.031319 -1.836865 -0.006277 -0.003382  0.253799
  1H   1pz       -0.011132  0.001305 -0.002233  0.002181  0.020024  0.000512
  1H   1px        0.000767  0.000074 -0.004363  0.001043  0.000833 -0.042742
  1H   1py        0.001247  0.011491  0.000442 -0.019940  0.002252 -0.000474
  2H   1s        -0.074908 -0.096775  0.025699  0.434819  0.180249 -0.148707
  2H   2s        -1.101577 -1.439010  0.374173  0.218365  0.090030 -0.072187
  2H   1pz       -0.007126  0.006581 -0.003675  0.011468  0.023753 -0.002686
  2H   1px        0.000712  0.003716  0.010501  0.007344  0.003200 -0.022984
  2H   1py       -0.005890  0.001752  0.003045 -0.036550 -0.005138  0.005335
  3H   1s         0.108586 -0.011654  0.062469 -0.057038 -0.458723 -0.172987
  3H   2s         1.609513 -0.171744  0.923489 -0.028760 -0.228712 -0.083179
  3H   1pz        0.000884  0.000009  0.005212  0.004674  0.039973  0.007587
  3H   1px       -0.006389  0.000271  0.008892 -0.000447 -0.007010 -0.023014
  3H   1py        0.000995  0.011542  0.000288 -0.019866  0.001839 -0.000603
  4H   1s        -0.056906  0.106733  0.032576 -0.366802  0.286121 -0.166353
  4H   2s        -0.833154  1.586229  0.475593 -0.184765  0.143220 -0.081035
  4H   1pz       -0.007884 -0.004966 -0.004207 -0.006194  0.026471 -0.003279
  4H   1px       -0.000006 -0.004485  0.010210 -0.005294  0.004847 -0.023237
  4H   1py        0.006473  0.001023 -0.002806 -0.033404  0.013333 -0.006711
                     12        13        14        15        16        17
                   0.87350   0.87386   0.87577   0.92310   1.10955   1.36310
                   0.00000   0.00000   0.00000   0.00000   0.00000   0.00000
                  --------  --------  --------  --------  --------  --------
  0C   1s         0.001255 -0.000037  0.001186  0.088294  0.079741  0.000013
  0C   2s        -0.005536  0.000336 -0.005949 -0.855739  2.162675  0.000365
  0C   1pz        0.714512 -0.178679 -0.213083 -0.006215 -0.000465  0.000017
  0C   1px        0.212736 -0.021776  0.737661 -0.010701 -0.004321 -0.000064
  0C   1py       -0.177558 -0.745754  0.029428  0.001467  0.000467 -0.000088
  0C   3s         0.003742 -0.000496  0.005051  1.477232 -5.300352 -0.000842
  0C   2pz       -1.220319  0.305343  0.365298  0.010876 -0.000480 -0.000013
  0C   2px       -0.363863  0.037307 -1.265911  0.021217  0.009405  0.000033
  0C   2py        0.303503  1.275390 -0.050487 -0.002756 -0.000894  0.000108
  0C   1dz2      -0.130842  0.026637  0.166871 -0.000067  0.000307  0.045088
  0C   1dxz       0.133198 -0.033281 -0.039378 -0.001286 -0.000862  0.040006
  0C   1dyz      -0.034986 -0.198456  0.004247  0.000245 -0.000027  0.382481
  0C   1dx2y2    -0.154970  0.023495 -0.176649  0.003208 -0.000930  0.026007
  0C   1dxy      -0.033114 -0.138901  0.005424  0.000247  0.000042 -0.544240
  1H   1s        -0.228914  0.023931 -0.807352  0.618091  0.338199  0.000136
  1H   2s         0.497665 -0.051152  1.734327 -0.649929  0.989308  0.000104
  1H   1pz        0.047562 -0.011873 -0.013971 -0.000399 -0.000541  0.018022
  1H   1px       -0.028929  0.003019 -0.101965  0.078250 -0.024843  0.000012
  1H   1py       -0.011795 -0.049453  0.001923  0.000066  0.000001 -0.244907
  2H   1s         0.608460  0.583373  0.144572  0.600594  0.336443 -0.000189
  2H   2s        -1.280733 -1.241285 -0.298045 -0.605378  0.997544  0.000183
  2H   1pz       -0.003644 -0.061372 -0.026074 -0.034722  0.011590  0.125727
  2H   1px       -0.023543 -0.037776  0.039716 -0.025538  0.009296 -0.210460
  2H   1py        0.081569  0.040405  0.023811  0.062556 -0.021119 -0.015842
  3H   1s        -0.663965  0.162126  0.499932  0.610469  0.338889  0.000032
  3H   2s         1.421893 -0.344863 -1.056985 -0.628200  0.995213  0.000176
  3H   1pz       -0.069842  0.016694  0.073559  0.072789 -0.023963  0.012722
  3H   1px        0.055868 -0.011585  0.017646 -0.026263  0.008834  0.021699
  3H   1py       -0.009377 -0.050057  0.000128 -0.001451  0.000428  0.244771
  4H   1s         0.314120 -0.770446  0.189644  0.602715  0.336822  0.000303
  4H   2s        -0.655083  1.638259 -0.394311 -0.610628  0.996361  0.000103
  4H   1pz        0.019345  0.058250 -0.031058 -0.037452  0.012426 -0.156519
  4H   1px       -0.005215  0.046527  0.036915 -0.025661  0.009243  0.188754
  4H   1py       -0.058686  0.066424 -0.026201 -0.061262  0.020519  0.016635
                     18        19        20        21        22        23
                   1.36332   2.04802   2.04809   2.04833   2.05092   2.05138
                   0.00000   0.00000   0.00000   0.00000   0.00000   0.00000
                  --------  --------  --------  --------  --------  --------
  0C   1s        -0.000102 -0.000011  0.000024 -0.000004 -0.000022  0.000176
  0C   2s        -0.002303 -0.000110  0.000230 -0.000036 -0.000513  0.003084
  0C   1pz       -0.000256 -0.002928  0.005966 -0.001318  0.005652 -0.036855
  0C   1px        0.000389 -0.000120 -0.001835 -0.000376  0.009946 -0.104161
  0C   1py       -0.000001 -0.013123 -0.007530  0.001711 -0.107931 -0.011111
  0C   3s         0.005556  0.000352 -0.000729  0.000109  0.001256 -0.008025
  0C   2pz        0.000233  0.014778 -0.030445  0.006874 -0.030053  0.194102
  0C   2px       -0.000157  0.000245  0.010465  0.001896 -0.052065  0.543079
  0C   2py       -0.000002  0.068888  0.039441 -0.009259  0.568352  0.058208
  0C   1dz2      -0.331853  0.008645 -0.033331  0.004949 -0.023965 -0.159806
  0C   1dxz      -0.543881 -0.009923  0.020447 -0.004633  0.020640 -0.132644
  0C   1dyz       0.052084 -0.067039 -0.036168  0.008845 -0.545601 -0.067465
  0C   1dx2y2    -0.191203  0.005033 -0.004841  0.005542 -0.084674  0.644369
  0C   1dxy      -0.039972 -0.046878 -0.026786  0.006659 -0.388352 -0.039627
  1H   1s        -0.000848 -0.000044 -0.011264 -0.002067  0.055137 -0.573768
  1H   2s        -0.000695 -0.000216  0.001505  0.000228 -0.006383  0.064410
  1H   1pz       -0.245054 -0.315000  0.543769 -0.042373  0.011775 -0.079915
  1H   1px       -0.000009  0.000003 -0.006546 -0.001181  0.032298 -0.336005
  1H   1py       -0.017988 -0.521633 -0.318005 -0.198915 -0.167128 -0.011395
  2H   1s        -0.000585 -0.053287 -0.045202  0.012348 -0.532496  0.235291
  2H   2s        -0.000756  0.005774  0.004837 -0.001510  0.059646 -0.024858
  2H   1pz        0.179474 -0.057539 -0.216999  0.489139  0.088735 -0.102423
  2H   1px        0.096381  0.269501  0.488370  0.148236 -0.008153 -0.254298
  2H   1py        0.137688  0.039853  0.046215  0.337595 -0.331239  0.006664
  3H   1s        -0.000015 -0.013156  0.034632 -0.006307  0.023594 -0.001789
  3H   2s        -0.001582  0.001239 -0.003328  0.000607 -0.003048  0.002794
  3H   1pz       -0.081225  0.098400 -0.157358 -0.002057  0.016684 -0.084447
  3H   1px       -0.230495  0.282233 -0.512916  0.032804  0.023231 -0.232771
  3H   1py        0.024816  0.315790  0.147778 -0.475669 -0.303084 -0.030475
  4H   1s        -0.000554  0.066428  0.021992 -0.003996  0.453335  0.342986
  4H   2s        -0.000746 -0.007097 -0.002415  0.000585 -0.051057 -0.036752
  4H   1pz        0.147003  0.246073 -0.111237 -0.457970 -0.057662 -0.115738
  4H   1px        0.134022 -0.551957  0.010364 -0.183492  0.054659 -0.238936
  4H   1py       -0.144447  0.031776  0.047221  0.355911 -0.316488 -0.078985
                     24        25        26        27        28        29
                   2.05212   2.62901   2.62952   2.63077   2.91089   2.91097
                   0.00000   0.00000   0.00000   0.00000   0.00000   0.00000
                  --------  --------  --------  --------  --------  --------
  0C   1s        -0.000160 -0.000050 -0.000006 -0.000015 -0.000048  0.000028
  0C   2s        -0.001427  0.000842  0.000299  0.001500  0.000549 -0.000346
  0C   1pz       -0.103278 -0.161629 -0.026120  0.003111  0.001043 -0.000623
  0C   1px        0.038119  0.001562  0.006370  0.163252 -0.000358  0.000174
  0C   1py       -0.002224  0.026180 -0.161243  0.006034  0.000181  0.000210
  0C   3s         0.004570 -0.000994 -0.000331 -0.001763  0.000186 -0.000071
  0C   2pz        0.542229 -0.651338 -0.105371  0.011547  0.000940 -0.000412
  0C   2px       -0.197899  0.008171  0.025997  0.661905 -0.000101 -0.000022
  0C   2py        0.011478  0.105671 -0.651657  0.024444  0.000646  0.001013
  0C   1dz2       0.566640  0.337448  0.042461  0.232344  0.410425 -0.202788
  0C   1dxz      -0.369552 -0.270365 -0.043679  0.004860  0.646211 -0.370257
  0C   1dyz      -0.043232  0.038300 -0.385026  0.014749  0.233994  0.474090
  0C   1dx2y2     0.059564  0.188215  0.002931 -0.414240  0.236348 -0.116628
  0C   1dxy      -0.007756  0.043961 -0.271851  0.010065 -0.370229 -0.645913
  1H   1s         0.208163  0.000767  0.002258  0.055858  0.000218 -0.000095
  1H   2s        -0.023152 -0.006510 -0.020996 -0.535102  0.000120 -0.000039
  1H   1pz       -0.194611  0.641519  0.103672 -0.011531 -0.439470  0.251720
  1H   1px        0.122301  0.002187  0.007059  0.179692 -0.000322  0.000123
  1H   1py       -0.006374 -0.104144  0.642539 -0.023925  0.251085  0.438062
  2H   1s         0.181828  0.032131 -0.042194 -0.016765  0.000071 -0.000038
  2H   2s        -0.021747 -0.307568  0.403452  0.166244  0.000023 -0.000581
  2H   1pz       -0.261976  0.424206  0.387536  0.105459  0.161079 -0.421862
  2H   1px        0.090826 -0.167252  0.184273 -0.563873  0.407422  0.248199
  2H   1py        0.021459  0.291468  0.124135 -0.236827  0.253059 -0.131660
  3H   1s        -0.612605 -0.052543 -0.007997 -0.017299 -0.000647  0.000382
  3H   2s         0.067463  0.500636  0.077106  0.170042 -0.001256  0.000659
  3H   1pz       -0.349373 -0.090878 -0.009093 -0.259323 -0.151571  0.070757
  3H   1px        0.086039  0.251266  0.014315 -0.562306 -0.419925  0.229358
  3H   1py        0.001874 -0.088955  0.642613 -0.018982 -0.240551 -0.447624
  4H   1s         0.220985  0.019325  0.048123 -0.020149  0.000100 -0.000104
  4H   2s        -0.026068 -0.185820 -0.459489  0.198860  0.000652  0.000203
  4H   1pz       -0.259685  0.500207 -0.243738  0.138741  0.431377  0.098054
  4H   1px        0.087260 -0.104011 -0.264422 -0.547052  0.011670 -0.476788
  4H   1py       -0.039354 -0.337819  0.065810  0.224634 -0.265533  0.137732
                     30        31        32        33
                   3.11687   3.41982   3.42002   3.42105
                   0.00000   0.00000   0.00000   0.00000
                  --------  --------  --------  --------
  0C   1s         0.121984 -0.000051 -0.000079  0.000189
  0C   2s        -0.839012  0.000480  0.000477 -0.003039
  0C   1pz        0.001201  0.147848  0.434975 -0.794222
  0C   1px        0.000838  0.237323  0.756130  0.459063
  0C   1py       -0.000218 -0.872738  0.279618 -0.009328
  0C   3s        -1.128130  0.000296  0.000245 -0.002228
  0C   2pz        0.000574  0.086312  0.254175 -0.464913
  0C   2px        0.000137  0.139572  0.444899  0.270434
  0C   2py       -0.000124 -0.511593  0.164006 -0.005492
  0C   1dz2       0.002711  0.030515 -0.107949 -1.015767
  0C   1dxz      -0.000886 -0.110032 -0.324019  0.592237
  0C   1dyz      -0.000044  0.905973 -0.321611  0.061224
  0C   1dx2y2    -0.000053  0.370874  1.063167  0.096523
  0C   1dxy       0.000092  0.650093 -0.208283  0.007072
  1H   1s         0.269522 -0.212544 -0.676990 -0.410152
  1H   2s         0.321708 -0.143236 -0.456224 -0.276466
  1H   1pz        0.000078  0.002667  0.007981 -0.014750
  1H   1px       -0.662134  0.315893  1.005828  0.608684
  1H   1py       -0.000009 -0.015614  0.005100 -0.000174
  2H   1s         0.270214  0.776228  0.195890 -0.178274
  2H   2s         0.321764  0.521587  0.131424 -0.119219
  2H   1pz        0.301769  0.519348  0.137752 -0.131674
  2H   1px        0.220903  0.383834  0.109039 -0.078835
  2H   1py       -0.547421 -0.954472 -0.231844  0.215644
  3H   1s         0.268517 -0.069198 -0.136515  0.808422
  3H   2s         0.320759 -0.046225 -0.090923  0.542514
  3H   1pz       -0.622097  0.098216  0.196242 -1.128747
  3H   1px        0.219669 -0.029644 -0.053192  0.402491
  3H   1py        0.012848 -0.016750  0.000870  0.022799
  4H   1s         0.270039 -0.494797  0.617691 -0.215860
  4H   2s         0.321646 -0.332672  0.414974 -0.144446
  4H   1pz        0.323918 -0.351432  0.449088 -0.167400
  4H   1px        0.220823 -0.237908  0.315370 -0.097105
  4H   1py        0.534266 -0.600037  0.734338 -0.255271

MULLIKEN ATOMIC CHARGES
-----------------------
   0 C :   -0.458579
   1 H :    0.115806
   2 H :    0.114228
   3 H :    0.114149
   4 H :    0.114396
Sum of atomic charges:    0.0000000

LOEWDIN ATOMIC CHARGES
----------------------
   0 C :   -0.298175
   1 H :    0.074684
   2 H :    0.074476
   3 H :    0.074506
   4 H :    0.074509

  Mayer bond orders larger than 0.1
B(  0-C ,  1-H ) :   0.9786 B(  0-C ,  2-H ) :   0.9794 B(  0-C ,  3-H ) :   0.9792
B(  0-C ,  4-H ) :   0.9793

FINAL SINGLE POINT ENERGY       -40.523213890542

DIPOLE MOMENT
-------------
                                X             Y             Z
Electronic contribution:     -0.00085      -0.00014       0.00130
Nuclear contribution   :     -0.00097       0.00014      -0.00025
                        -----------------------------------------
Total Dipole Moment    :     -0.00182      -0.00000       0.00105
                        -----------------------------------------
Magnitude (a.u.)       :      0.00210
Magnitude (Debye)      :      0.00534

VIBRATIONAL FREQUENCIES
-----------------------

   0:         0.00 cm**-1
   1:         0.00 cm**-1
   2:         0.00 cm**-1
   3:         0.00 cm**-1
   4:         0.00 cm**-1
   5:         0.00 cm**-1
   6:      1353.48 cm**-1
   7:      1353.95 cm**-1
   8:      1357.60 cm**-1
   9:      1575.80 cm**-1
  10:      1577.31 cm**-1
  11:      3048.11 cm**-1
  12:      3158.23 cm**-1
  13:      3161.71 cm**-1
  14:      3163.41 cm**-1

IR SPECTRUM
-----------

 Mode    freq (cm**-1)   T**2         TX         TY         TZ
-------------------------------------------------------------------
   6:      1353.48   15.624696  (  0.572745  -2.278738   3.178681)
   7:      1353.95   15.575758  ( -0.200574  -3.227854  -2.261966)
   8:      1357.60   12.674951  (  3.514566   0.166967  -0.543049)
   9:      1575.80    0.057004  (  0.000224  -0.238701   0.005029)
  10:      1577.31    0.030325  (  0.061148   0.018664  -0.161980)
  11:      3048.11    0.025378  (  0.009499  -0.020935   0.157638)
  12:      3158.23   24.003877  (  4.562025  -0.044190   1.786015)
  13:      3161.71   21.724703  ( -0.002346  -4.658874  -0.139959)
  14:      3163.41   23.192230  ( -1.759714  -0.108934   4.481492)

--------------------------
THERMOCHEMISTRY AT 298.15K
--------------------------

Temperature         ... 298.15 K
Pressure            ... 1.00 atm
Total Mass          ... 16.04 AMU

Throughout the following assumptions are being made:
  (1) The electronic state is orbitally nondegenerate
  (2) There are no thermally accessible electronically excited states
  (3) Hindered rotations indicated by low frequency modes are not
      treated as such but are treated as vibrations and this may
      cause some error
  (4) All equations used are the standard statistical mechanics
      equations for an ideal gas
  (5) All vibrations are strictly harmonic

freq.    1353.48  E(vib)   ...       0.01
freq.    1353.95  E(vib)   ...       0.01
freq.    1357.60  E(vib)   ...       0.01
freq.    1575.80  E(vib)   ...       0.00
freq.    1577.31  E(vib)   ...       0.00
freq.    3048.11  E(vib)   ...       0.00
freq.    3158.23  E(vib)   ...       0.00
freq.    3161.71  E(vib)   ...       0.00
freq.    3163.41  E(vib)   ...       0.00

------------
INNER ENERGY
------------

The inner energy is: U= E(el) + E(ZPE) + E(vib) + E(rot) + E(trans)
    E(el)   - is the total energy from the electronic structure calculation
              = E(kin-el) + E(nuc-el) + E(el-el) + E(nuc-nuc)
    E(ZPE)  - the the zero temperature vibrational energy from the frequency calculation
    E(vib)  - the the finite temperature correction to E(ZPE) due to population
              of excited vibrational states
    E(rot)  - is the rotational thermal energy
    E(trans)- is the translational thermal energy

Summary of contributions to the inner energy U:
Electronic energy                ...    -40.52321389 Eh
Zero point energy                ...      0.04499291 Eh      28.23 kcal/mol
Thermal vibrational correction   ...      0.00003398 Eh       0.02 kcal/mol
Thermal rotational correction    ...      0.00141627 Eh       0.89 kcal/mol
Thermal translational correction ...      0.00141627 Eh       0.89 kcal/mol
-----------------------------------------------------------------------
Total thermal energy                    -40.47535445 Eh

Summary of corrections to the electronic energy:
(perhaps to be used in another calculation)
Total thermal correction                  0.00286653 Eh       1.80 kcal/mol
Non-thermal (ZPE) correction              0.04499291 Eh      28.23 kcal/mol
-----------------------------------------------------------------------
Total correction                          0.04785944 Eh      30.03 kcal/mol

--------
ENTHALPY
--------

The enthalpy is H = U + kB*T
                kB is Boltzmann's constant
Total free energy                 ...    -40.47535445 Eh
Thermal Enthalpy correction       ...      0.00094421 Eh       0.59 kcal/mol
-----------------------------------------------------------------------
Total Enthalpy                    ...    -40.47441025 Eh

Vibrational entropy computed according to the QRRHO of S. Grimme
Chem.Eur.J. 2012 18 9955

-------
ENTROPY
-------

The entropy contributions are T*S = T*(S(el)+S(vib)+S(rot)+S(trans)
     S(el)   - electronic entropy
     S(vib)  - vibrational entropy
     S(rot)  - rotational entropy
     S(trans)- translational entropy
The entropies will be listed as mutliplied by the temperature to get
units of energy

Electronic entropy                ...      0.00000000 Eh      0.00 kcal/mol
Vibrational entropy               ...      0.00003903 Eh      0.02 kcal/mol
Rotational entropy                ...      0.00612265 Eh      3.84 kcal/mol
Translational entropy             ...      0.01627961 Eh     10.22 kcal/mol
-----------------------------------------------------------------------
Final entropy term                ...      0.02244129 Eh     14.08 kcal/mol

CAUTION: The rotational entropy is not quite correctly treated here
         because it includes a symmetry number that is not yet correctly
         implemented in ORCA!
For a nonlinear molecule the correct rotational entropy is:
    S(rot) = R*(ln(qrot/sn)+1.5)
    R    = 8.31441 J/mol/K = 1.987191683e-3 kcal/mol/K
    qrot =  438.4403248
    sn is the rotational symmetry number. We have assumed 3 here
       if it is different for your molecule then you should correct
       the printed rotational entropy by manually evaluating the equation
       as given above

For convenience we print out the resulting values for sn=1 - 12:
 sn= 1  qrot/sn=     438.4403 T*S(rot)=     4.49 kcal/mol T*S(tot)=    14.73 kcal/mol
 sn= 2  qrot/sn=     219.2202 T*S(rot)=     4.08 kcal/mol T*S(tot)=    14.32 kcal/mol
 sn= 3  qrot/sn=     146.1468 T*S(rot)=     3.84 kcal/mol T*S(tot)=    14.08 kcal/mol
 sn= 4  qrot/sn=     109.6101 T*S(rot)=     3.67 kcal/mol T*S(tot)=    13.91 kcal/mol
 sn= 5  qrot/sn=      87.6881 T*S(rot)=     3.54 kcal/mol T*S(tot)=    13.78 kcal/mol
 sn= 6  qrot/sn=      73.0734 T*S(rot)=     3.43 kcal/mol T*S(tot)=    13.67 kcal/mol
 sn= 7  qrot/sn=      62.6343 T*S(rot)=     3.34 kcal/mol T*S(tot)=    13.58 kcal/mol
 sn= 8  qrot/sn=      54.8050 T*S(rot)=     3.26 kcal/mol T*S(tot)=    13.50 kcal/mol
 sn= 9  qrot/sn=      48.7156 T*S(rot)=     3.19 kcal/mol T*S(tot)=    13.43 kcal/mol
 sn=10  qrot/sn=      43.8440 T*S(rot)=     3.13 kcal/mol T*S(tot)=    13.37 kcal/mol
 sn=11  qrot/sn=      39.8582 T*S(rot)=     3.07 kcal/mol T*S(tot)=    13.31 kcal/mol
 sn=12  qrot/sn=      36.5367 T*S(rot)=     3.02 kcal/mol T*S(tot)=    13.26 kcal/mol

-------------------
GIBBS FREE ENTHALPY
-------------------

The Gibbs free enthalpy is G = H - T*S

Total enthalpy                    ...    -40.47441025 Eh
Total entropy correction          ...     -0.02244129 Eh    -14.08 kcal/mol
-----------------------------------------------------------------------
Final Gibbs free enthalpy         ...    -40.49685153 Eh

For completeness - the Gibbs free enthalpy minus the electronic energy
G-E(el)                           ...      0.02636236 Eh     16.54 kcal/mol

                             ****ORCA TERMINATED NORMALLY****
TOTAL RUN TIME: 0 days 0 hours 1 minutes 37 seconds 232 msec
